TITLE = "test"
VARIABLES = "x0", "x1", "value"
ZONE T = "monomial solution", ZONETYPE = FEQUADRILATERAL, DATAPACKING = POINT, N = 512       , E = 128       
           0            0    4.1677238e-08
           0            0    4.1677238e-08
       0.125            0        0.3535544
           0        0.125   -7.4373157e-08
       0.125            0       0.35355458
       0.125            0       0.35355458
       0.125        0.125       0.25000011
           0        0.125    1.0410433e-07
       0.125        0.125       0.25000001
       0.125        0.125       0.25000001
       0.125            0       0.35355567
        0.25        0.125       0.35355567
       0.125            0       0.35355585
       0.125            0       0.35355585
        0.25            0       0.50000008
        0.25        0.125       0.35355585
        0.25            0       0.50000008
        0.25            0       0.50000008
       0.375            0       0.35355585
        0.25        0.125       0.35355585
       0.375            0       0.35355567
       0.375            0       0.35355567
       0.375        0.125       0.25000001
        0.25        0.125       0.35355567
       0.375        0.125       0.25000011
       0.375        0.125       0.25000011
       0.375            0       0.35355458
         0.5        0.125    1.0408734e-07
       0.375            0        0.3535544
       0.375            0        0.3535544
         0.5            0    4.1662055e-08
         0.5        0.125    -7.439022e-08
         0.5            0   -4.1692466e-08
         0.5            0   -4.1692466e-08
       0.625            0       -0.3535544
         0.5        0.125    7.4356354e-08
       0.625            0      -0.35355458
       0.625            0      -0.35355458
       0.625        0.125      -0.25000011
         0.5        0.125     -1.04121e-07
       0.625        0.125      -0.25000001
       0.625        0.125      -0.25000001
       0.625            0      -0.35355567
        0.75        0.125      -0.35355567
       0.625            0      -0.35355585
       0.625            0      -0.35355585
        0.75            0      -0.50000008
        0.75        0.125      -0.35355585
        0.75            0      -0.50000008
        0.75            0      -0.50000008
       0.875            0      -0.35355585
        0.75        0.125      -0.35355585
       0.875            0      -0.35355567
       0.875            0      -0.35355567
       0.875        0.125      -0.25000001
        0.75        0.125      -0.35355567
       0.875        0.125      -0.25000011
       0.875        0.125      -0.25000011
       0.875            0      -0.35355458
           1        0.125   -1.0410434e-07
       0.875            0       -0.3535544
       0.875            0       -0.3535544
           1            0   -4.1677251e-08
           1        0.125    7.4373249e-08
           0         0.25   -1.3257777e-07
           0         0.25   -1.3257777e-07
           0        0.125    1.1651223e-06
       0.125         0.25     1.165112e-06
           0        0.125    1.3435998e-06
           0        0.125    1.3435998e-06
       0.125        0.125       0.24999993
       0.125         0.25    1.3435894e-06
       0.125        0.125       0.25000011
       0.125        0.125       0.25000011
        0.25        0.125       0.35355458
       0.125         0.25    1.0409416e-07
        0.25        0.125        0.3535544
        0.25        0.125        0.3535544
        0.25         0.25    4.1661164e-08
       0.125         0.25    -7.438338e-08
        0.25         0.25    4.1660868e-08
        0.25         0.25    4.1660868e-08
        0.25        0.125        0.3535544
       0.375         0.25   -7.4391643e-08
        0.25        0.125       0.35355458
        0.25        0.125       0.35355458
       0.375        0.125       0.25000011
       0.375         0.25    1.0408584e-07
       0.375        0.125       0.24999993
       0.375        0.125       0.24999993
         0.5        0.125    1.3435829e-06
       0.375         0.25    1.3435815e-06
         0.5        0.125    1.1651055e-06
         0.5        0.125    1.1651055e-06
         0.5         0.25   -1.3259327e-07
       0.375         0.25     1.165104e-06
         0.5         0.25     1.325622e-07
         0.5         0.25     1.325622e-07
         0.5        0.125    -1.165139e-06
       0.625         0.25    -1.165134e-06
         0.5        0.125   -1.3436164e-06
         0.5        0.125   -1.3436164e-06
       0.625        0.125      -0.24999993
       0.625         0.25   -1.3436115e-06
       0.625        0.125      -0.25000011
       0.625        0.125      -0.25000011
        0.75        0.125      -0.35355458
       0.625         0.25   -1.0411605e-07
        0.75        0.125       -0.3535544
        0.75        0.125       -0.3535544
        0.75         0.25   -4.1684607e-08
       0.625         0.25    7.4361468e-08
        0.75         0.25   -4.1684505e-08
        0.75         0.25   -4.1684505e-08
        0.75        0.125       -0.3535544
       0.875         0.25    7.4369813e-08
        0.75        0.125      -0.35355458
        0.75        0.125      -0.35355458
       0.875        0.125      -0.25000011
       0.875         0.25   -1.0410778e-07
       0.875        0.125      -0.24999993
       0.875        0.125      -0.24999993
           1        0.125   -1.3435999e-06
       0.875         0.25   -1.3436034e-06
           1        0.125   -1.1651222e-06
           1        0.125   -1.1651222e-06
           1         0.25    1.3257773e-07
       0.875         0.25   -1.1651259e-06
           0         0.25    1.3257777e-07
           0         0.25    1.3257777e-07
       0.125         0.25   -1.1651326e-06
           0        0.375   -1.1651223e-06
       0.125         0.25     -1.34361e-06
       0.125         0.25     -1.34361e-06
       0.125        0.375      -0.24999993
           0        0.375   -1.3435998e-06
       0.125        0.375      -0.25000011
       0.125        0.375      -0.25000011
       0.125         0.25   -1.0411455e-07
        0.25        0.375      -0.35355458
       0.125         0.25    7.4362828e-08
       0.125         0.25    7.4362828e-08
        0.25         0.25   -4.1693452e-08
        0.25        0.375       -0.3535544
        0.25         0.25   -4.1693465e-08
        0.25         0.25   -4.1693465e-08
       0.375         0.25    7.4354643e-08
        0.25        0.375       -0.3535544
       0.375         0.25   -1.0412284e-07
       0.375         0.25   -1.0412284e-07
       0.375        0.375      -0.25000011
        0.25        0.375      -0.35355458
       0.375        0.375      -0.24999993
       0.375        0.375      -0.24999993
       0.375         0.25   -1.3436181e-06
         0.5        0.375    -1.343614e-06
       0.375         0.25   -1.1651404e-06
       0.375         0.25   -1.1651404e-06
         0.5         0.25    1.3256216e-07
         0.5        0.375   -1.1651365e-06
         0.5         0.25   -1.3259323e-07
         0.5         0.25   -1.3259323e-07
       0.625         0.25    1.1651106e-06
         0.5        0.375    1.1651081e-06
       0.625         0.25    1.3435882e-06
       0.625         0.25    1.3435882e-06
       0.625        0.375       0.24999993
         0.5        0.375    1.3435856e-06
       0.625        0.375       0.25000011
       0.625        0.375       0.25000011
       0.625         0.25    1.0409263e-07
        0.75        0.375       0.35355458
       0.625         0.25   -7.4384892e-08
       0.625         0.25   -7.4384892e-08
        0.75         0.25    4.1670001e-08
        0.75        0.375        0.3535544
        0.75         0.25    4.1670137e-08
        0.75         0.25    4.1670137e-08
       0.875         0.25   -7.4376627e-08
        0.75        0.375        0.3535544
       0.875         0.25    1.0410094e-07
       0.875         0.25    1.0410094e-07
       0.875        0.375       0.25000011
        0.75        0.375       0.35355458
       0.875        0.375       0.24999993
       0.875        0.375       0.24999993
       0.875         0.25    1.3435962e-06
           1        0.375    1.3435998e-06
       0.875         0.25    1.1651185e-06
       0.875         0.25    1.1651185e-06
           1         0.25   -1.3257774e-07
           1        0.375    1.1651223e-06
           0          0.5   -4.1677333e-08
           0          0.5   -4.1677333e-08
           0        0.375      7.43731e-08
       0.125          0.5       -0.3535544
           0        0.375   -1.0410465e-07
           0        0.375   -1.0410465e-07
       0.125        0.375      -0.25000011
       0.125          0.5      -0.35355458
       0.125        0.375      -0.25000001
       0.125        0.375      -0.25000001
        0.25        0.375      -0.35355567
       0.125          0.5      -0.35355567
        0.25        0.375      -0.35355585
        0.25        0.375      -0.35355585
        0.25          0.5      -0.50000008
       0.125          0.5      -0.35355585
        0.25          0.5      -0.50000008
        0.25          0.5      -0.50000008
        0.25        0.375      -0.35355585
       0.375          0.5      -0.35355585
        0.25        0.375      -0.35355567
        0.25        0.375      -0.35355567
       0.375        0.375      -0.25000001
       0.375          0.5      -0.35355567
       0.375        0.375      -0.25000011
       0.375        0.375      -0.25000011
         0.5        0.375   -1.0411843e-07
       0.375          0.5      -0.35355458
         0.5        0.375    7.4359269e-08
         0.5        0.375    7.4359269e-08
         0.5          0.5   -4.1689799e-08
       0.375          0.5       -0.3535544
         0.5          0.5    4.1664771e-08
         0.5          0.5    4.1664771e-08
         0.5        0.375   -7.4387298e-08
       0.625          0.5        0.3535544
         0.5        0.375    1.0409017e-07
         0.5        0.375    1.0409017e-07
       0.625        0.375       0.25000011
       0.625          0.5       0.35355458
       0.625        0.375       0.25000001
       0.625        0.375       0.25000001
        0.75        0.375       0.35355567
       0.625          0.5       0.35355567
        0.75        0.375       0.35355585
        0.75        0.375       0.35355585
        0.75          0.5       0.50000008
       0.625          0.5       0.35355585
        0.75          0.5       0.50000008
        0.75          0.5       0.50000008
        0.75        0.375       0.35355585
       0.875          0.5       0.35355585
        0.75        0.375       0.35355567
        0.75        0.375       0.35355567
       0.875        0.375       0.25000001
       0.875          0.5       0.35355567
       0.875        0.375       0.25000011
       0.875        0.375       0.25000011
           1        0.375    1.0410436e-07
       0.875          0.5       0.35355458
           1        0.375   -7.4373161e-08
           1        0.375   -7.4373161e-08
           1          0.5    4.1677369e-08
       0.875          0.5        0.3535544
           0          0.5   -4.1677394e-08
           0          0.5   -4.1677394e-08
       0.125          0.5       -0.3535544
           0        0.625    7.4373105e-08
       0.125          0.5      -0.35355458
       0.125          0.5      -0.35355458
       0.125        0.625      -0.25000011
           0        0.625   -1.0410463e-07
       0.125        0.625      -0.25000001
       0.125        0.625      -0.25000001
       0.125          0.5      -0.35355567
        0.25        0.625      -0.35355567
       0.125          0.5      -0.35355585
       0.125          0.5      -0.35355585
        0.25          0.5      -0.50000008
        0.25        0.625      -0.35355585
        0.25          0.5      -0.50000008
        0.25          0.5      -0.50000008
       0.375          0.5      -0.35355585
        0.25        0.625      -0.35355585
       0.375          0.5      -0.35355567
       0.375          0.5      -0.35355567
       0.375        0.625      -0.25000001
        0.25        0.625      -0.35355567
       0.375        0.625      -0.25000011
       0.375        0.625      -0.25000011
       0.375          0.5      -0.35355458
         0.5        0.625   -1.0411505e-07
       0.375          0.5       -0.3535544
       0.375          0.5       -0.3535544
         0.5          0.5   -4.1689637e-08
         0.5        0.625    7.4362381e-08
         0.5          0.5    4.1665081e-08
         0.5          0.5    4.1665081e-08
       0.625          0.5        0.3535544
         0.5        0.625   -7.4383943e-08
       0.625          0.5       0.35355458
       0.625          0.5       0.35355458
       0.625        0.625       0.25000011
         0.5        0.625    1.0409357e-07
       0.625        0.625       0.25000001
       0.625        0.625       0.25000001
       0.625          0.5       0.35355567
        0.75        0.625       0.35355567
       0.625          0.5       0.35355585
       0.625          0.5       0.35355585
        0.75          0.5       0.50000008
        0.75        0.625       0.35355585
        0.75          0.5       0.50000008
        0.75          0.5       0.50000008
       0.875          0.5       0.35355585
        0.75        0.625       0.35355585
       0.875          0.5       0.35355567
       0.875          0.5       0.35355567
       0.875        0.625       0.25000001
        0.75        0.625       0.35355567
       0.875        0.625       0.25000011
       0.875        0.625       0.25000011
       0.875          0.5       0.35355458
           1        0.625    1.0410435e-07
       0.875          0.5        0.3535544
       0.875          0.5        0.3535544
           1          0.5    4.1677284e-08
           1        0.625   -7.4373173e-08
           0         0.75    1.3257779e-07
           0         0.75    1.3257779e-07
           0        0.625   -1.1651224e-06
       0.125         0.75   -1.1651277e-06
           0        0.625   -1.3435999e-06
           0        0.625   -1.3435999e-06
       0.125        0.625      -0.24999993
       0.125         0.75   -1.3436052e-06
       0.125        0.625      -0.25000011
       0.125        0.625      -0.25000011
        0.25        0.625      -0.35355458
       0.125         0.75   -1.0410973e-07
        0.25        0.625       -0.3535544
        0.25        0.625       -0.3535544
        0.25         0.75   -4.1686425e-08
       0.125         0.75     7.436784e-08
        0.25         0.75   -4.1686163e-08
        0.25         0.75   -4.1686163e-08
        0.25        0.625       -0.3535544
       0.375         0.75    7.4363066e-08
        0.25        0.625      -0.35355458
        0.25        0.625      -0.35355458
       0.375        0.625      -0.25000011
       0.375         0.75   -1.0411443e-07
       0.375        0.625      -0.24999993
       0.375        0.625      -0.24999993
         0.5        0.625   -1.3436107e-06
       0.375         0.75   -1.3436098e-06
         0.5        0.625   -1.1651332e-06
         0.5        0.625   -1.1651332e-06
         0.5         0.75     1.325694e-07
       0.375         0.75   -1.1651322e-06
         0.5         0.75   -1.3258608e-07
         0.5         0.75   -1.3258608e-07
         0.5        0.625    1.1651115e-06
       0.625         0.75    1.1651164e-06
         0.5        0.625     1.343589e-06
         0.5        0.625     1.343589e-06
       0.625        0.625       0.24999993
       0.625         0.75     1.343594e-06
       0.625        0.625       0.25000011
       0.625        0.625       0.25000011
        0.75        0.625       0.35355458
       0.625         0.75    1.0409861e-07
        0.75        0.625        0.3535544
        0.75        0.625        0.3535544
        0.75         0.75    4.1674038e-08
       0.625         0.75   -7.4378994e-08
        0.75         0.75    4.1673865e-08
        0.75         0.75    4.1673865e-08
        0.75        0.625        0.3535544
       0.875         0.75   -7.4374215e-08
        0.75        0.625       0.35355458
        0.75        0.625       0.35355458
       0.875        0.625       0.25000011
       0.875         0.75    1.0410342e-07
       0.875        0.625       0.24999993
       0.875        0.625       0.24999993
           1        0.625    1.3435999e-06
       0.875         0.75    1.3435988e-06
           1        0.625    1.1651223e-06
           1        0.625    1.1651223e-06
           1         0.75   -1.3257774e-07
       0.875         0.75    1.1651212e-06
           0         0.75   -1.3257769e-07
           0         0.75   -1.3257769e-07
       0.125         0.75    1.1651168e-06
           0        0.875    1.1651222e-06
       0.125         0.75    1.3435945e-06
       0.125         0.75    1.3435945e-06
       0.125        0.875       0.24999993
           0        0.875    1.3435997e-06
       0.125        0.875       0.25000011
       0.125        0.875       0.25000011
       0.125         0.75    1.0409896e-07
        0.25        0.875       0.35355458
       0.125         0.75    -7.437846e-08
       0.125         0.75    -7.437846e-08
        0.25         0.75    4.1668111e-08
        0.25        0.875        0.3535544
        0.25         0.75    4.1668276e-08
        0.25         0.75    4.1668276e-08
       0.375         0.75   -7.4383263e-08
        0.25        0.875        0.3535544
       0.375         0.75    1.0409436e-07
       0.375         0.75    1.0409436e-07
       0.375        0.875       0.25000011
        0.25        0.875       0.35355458
       0.375        0.875       0.24999993
       0.375        0.875       0.24999993
       0.375         0.75    1.3435898e-06
         0.5        0.875    1.3435931e-06
       0.375         0.75    1.1651123e-06
       0.375         0.75    1.1651123e-06
         0.5         0.75   -1.3258609e-07
         0.5        0.875    1.1651155e-06
         0.5         0.75     1.325694e-07
         0.5         0.75     1.325694e-07
       0.625         0.75   -1.1651281e-06
         0.5        0.875    -1.165129e-06
       0.625         0.75   -1.3436057e-06
       0.625         0.75   -1.3436057e-06
       0.625        0.875      -0.24999993
         0.5        0.875   -1.3436065e-06
       0.625        0.875      -0.25000011
       0.625        0.875      -0.25000011
       0.625         0.75   -1.0411018e-07
        0.75        0.875      -0.35355458
       0.625         0.75    7.4367246e-08
       0.625         0.75    7.4367246e-08
        0.75         0.75   -4.1680485e-08
        0.75        0.875       -0.3535544
        0.75         0.75   -4.1680447e-08
        0.75         0.75   -4.1680447e-08
       0.875         0.75    7.4372297e-08
        0.75        0.875       -0.3535544
       0.875         0.75   -1.0410506e-07
       0.875         0.75   -1.0410506e-07
       0.875        0.875      -0.25000011
        0.75        0.875      -0.35355458
       0.875        0.875      -0.24999993
       0.875        0.875      -0.24999993
       0.875         0.75   -1.3436007e-06
           1        0.875   -1.3435998e-06
       0.875         0.75   -1.1651233e-06
       0.875         0.75   -1.1651233e-06
           1         0.75    1.3257773e-07
           1        0.875   -1.1651222e-06
           0            1     4.167713e-08
           0            1     4.167713e-08
           0        0.875   -7.4373312e-08
       0.125            1        0.3535544
           0        0.875    1.0410403e-07
           0        0.875    1.0410403e-07
       0.125        0.875       0.25000011
       0.125            1       0.35355458
       0.125        0.875       0.25000001
       0.125        0.875       0.25000001
        0.25        0.875       0.35355567
       0.125            1       0.35355567
        0.25        0.875       0.35355585
        0.25        0.875       0.35355585
        0.25            1       0.50000008
       0.125            1       0.35355585
        0.25            1       0.50000008
        0.25            1       0.50000008
        0.25        0.875       0.35355585
       0.375            1       0.35355585
        0.25        0.875       0.35355567
        0.25        0.875       0.35355567
       0.375        0.875       0.25000001
       0.375            1       0.35355567
       0.375        0.875       0.25000011
       0.375        0.875       0.25000011
         0.5        0.875    1.0409769e-07
       0.375            1       0.35355458
         0.5        0.875   -7.4379782e-08
         0.5        0.875   -7.4379782e-08
         0.5            1    4.1671069e-08
       0.375            1        0.3535544
         0.5            1   -4.1683467e-08
         0.5            1   -4.1683467e-08
         0.5        0.875    7.4366556e-08
       0.625            1       -0.3535544
         0.5        0.875   -1.0411095e-07
         0.5        0.875   -1.0411095e-07
       0.625        0.875      -0.25000011
       0.625            1      -0.35355458
       0.625        0.875      -0.25000001
       0.625        0.875      -0.25000001
        0.75        0.875      -0.35355567
       0.625            1      -0.35355567
        0.75        0.875      -0.35355585
        0.75        0.875      -0.35355585
        0.75            1      -0.50000008
       0.625            1      -0.35355585
        0.75            1      -0.50000008
        0.75            1      -0.50000008
        0.75        0.875      -0.35355585
       0.875            1      -0.35355585
        0.75        0.875      -0.35355567
        0.75        0.875      -0.35355567
       0.875        0.875      -0.25000001
       0.875            1      -0.35355567
       0.875        0.875      -0.25000011
       0.875        0.875      -0.25000011
           1        0.875   -1.0410443e-07
       0.875            1      -0.35355458
           1        0.875    7.4373063e-08
           1        0.875    7.4373063e-08
           1            1   -4.1677319e-08
       0.875            1       -0.3535544
1 2 3 4 
5 6 7 8 
9 10 11 12 
13 14 15 16 
17 18 19 20 
21 22 23 24 
25 26 27 28 
29 30 31 32 
33 34 35 36 
37 38 39 40 
41 42 43 44 
45 46 47 48 
49 50 51 52 
53 54 55 56 
57 58 59 60 
61 62 63 64 
65 66 67 68 
69 70 71 72 
73 74 75 76 
77 78 79 80 
81 82 83 84 
85 86 87 88 
89 90 91 92 
93 94 95 96 
97 98 99 100 
101 102 103 104 
105 106 107 108 
109 110 111 112 
113 114 115 116 
117 118 119 120 
121 122 123 124 
125 126 127 128 
129 130 131 132 
133 134 135 136 
137 138 139 140 
141 142 143 144 
145 146 147 148 
149 150 151 152 
153 154 155 156 
157 158 159 160 
161 162 163 164 
165 166 167 168 
169 170 171 172 
173 174 175 176 
177 178 179 180 
181 182 183 184 
185 186 187 188 
189 190 191 192 
193 194 195 196 
197 198 199 200 
201 202 203 204 
205 206 207 208 
209 210 211 212 
213 214 215 216 
217 218 219 220 
221 222 223 224 
225 226 227 228 
229 230 231 232 
233 234 235 236 
237 238 239 240 
241 242 243 244 
245 246 247 248 
249 250 251 252 
253 254 255 256 
257 258 259 260 
261 262 263 264 
265 266 267 268 
269 270 271 272 
273 274 275 276 
277 278 279 280 
281 282 283 284 
285 286 287 288 
289 290 291 292 
293 294 295 296 
297 298 299 300 
301 302 303 304 
305 306 307 308 
309 310 311 312 
313 314 315 316 
317 318 319 320 
321 322 323 324 
325 326 327 328 
329 330 331 332 
333 334 335 336 
337 338 339 340 
341 342 343 344 
345 346 347 348 
349 350 351 352 
353 354 355 356 
357 358 359 360 
361 362 363 364 
365 366 367 368 
369 370 371 372 
373 374 375 376 
377 378 379 380 
381 382 383 384 
385 386 387 388 
389 390 391 392 
393 394 395 396 
397 398 399 400 
401 402 403 404 
405 406 407 408 
409 410 411 412 
413 414 415 416 
417 418 419 420 
421 422 423 424 
425 426 427 428 
429 430 431 432 
433 434 435 436 
437 438 439 440 
441 442 443 444 
445 446 447 448 
449 450 451 452 
453 454 455 456 
457 458 459 460 
461 462 463 464 
465 466 467 468 
469 470 471 472 
473 474 475 476 
477 478 479 480 
481 482 483 484 
485 486 487 488 
489 490 491 492 
493 494 495 496 
497 498 499 500 
501 502 503 504 
505 506 507 508 
509 510 511 512 
